 Entering Link 1 = C:\G09W\l1.exe PID=     13880.
  
 Copyright (c) 1988,1990,1992,1993,1995,1998,2003,2009,2015,
            Gaussian, Inc.  All Rights Reserved.
  
 This is part of the Gaussian(R) 09 program.  It is based on
 the Gaussian(R) 03 system (copyright 2003, Gaussian, Inc.),
 the Gaussian(R) 98 system (copyright 1998, Gaussian, Inc.),
 the Gaussian(R) 94 system (copyright 1995, Gaussian, Inc.),
 the Gaussian 92(TM) system (copyright 1992, Gaussian, Inc.),
 the Gaussian 90(TM) system (copyright 1990, Gaussian, Inc.),
 the Gaussian 88(TM) system (copyright 1988, Gaussian, Inc.),
 the Gaussian 86(TM) system (copyright 1986, Carnegie Mellon
 University), and the Gaussian 82(TM) system (copyright 1983,
 Carnegie Mellon University). Gaussian is a federally registered
 trademark of Gaussian, Inc.
  
 This software contains proprietary and confidential information,
 including trade secrets, belonging to Gaussian, Inc.
  
 This software is provided under written license and may be
 used, copied, transmitted, or stored only in accord with that
 written license.
  
 The following legend is applicable only to US Government
 contracts under FAR:
  
                    RESTRICTED RIGHTS LEGEND
  
 Use, reproduction and disclosure by the US Government is
 subject to restrictions as set forth in subparagraphs (a)
 and (c) of the Commercial Computer Software - Restricted
 Rights clause in FAR 52.227-19.
  
 Gaussian, Inc.
 340 Quinnipiac St., Bldg. 40, Wallingford CT 06492
  
  
 ---------------------------------------------------------------
 Warning -- This program may not be used in any manner that
 competes with the business of Gaussian, Inc. or will provide
 assistance to any competitor of Gaussian, Inc.  The licensee
 of this program is prohibited from giving any competitor of
 Gaussian, Inc. access to this program.  By using this program,
 the user acknowledges that Gaussian, Inc. is engaged in the
 business of creating and licensing software in the field of
 computational chemistry and represents and warrants to the
 licensee that it is not a competitor of Gaussian, Inc. and that
 it will not use this program in any manner prohibited above.
 ---------------------------------------------------------------
  

 Cite this work as:
 Gaussian 09, Revision E.01,
 M. J. Frisch, G. W. Trucks, H. B. Schlegel, G. E. Scuseria, 
 M. A. Robb, J. R. Cheeseman, G. Scalmani, V. Barone, B. Mennucci, 
 G. A. Petersson, H. Nakatsuji, M. Caricato, X. Li, H. P. Hratchian, 
 A. F. Izmaylov, J. Bloino, G. Zheng, J. L. Sonnenberg, M. Hada, 
 M. Ehara, K. Toyota, R. Fukuda, J. Hasegawa, M. Ishida, T. Nakajima, 
 Y. Honda, O. Kitao, H. Nakai, T. Vreven, J. A. Montgomery, Jr., 
 J. E. Peralta, F. Ogliaro, M. Bearpark, J. J. Heyd, E. Brothers, 
 K. N. Kudin, V. N. Staroverov, T. Keith, R. Kobayashi, J. Normand, 
 K. Raghavachari, A. Rendell, J. C. Burant, S. S. Iyengar, J. Tomasi, 
 M. Cossi, N. Rega, J. M. Millam, M. Klene, J. E. Knox, J. B. Cross, 
 V. Bakken, C. Adamo, J. Jaramillo, R. Gomperts, R. E. Stratmann, 
 O. Yazyev, A. J. Austin, R. Cammi, C. Pomelli, J. W. Ochterski, 
 R. L. Martin, K. Morokuma, V. G. Zakrzewski, G. A. Voth, 
 P. Salvador, J. J. Dannenberg, S. Dapprich, A. D. Daniels, 
 O. Farkas, J. B. Foresman, J. V. Ortiz, J. Cioslowski, 
 and D. J. Fox, Gaussian, Inc., Wallingford CT, 2013.
 
 ******************************************
 Gaussian 09:  EM64W-G09RevE.01 30-Nov-2015
                20-Nov-2024 
 ******************************************
 %chk=D:\000Awilliam\O2.chk
 %mem=60MW
 %nprocshared=1
 Will use up to    1 processors via shared memory.
 ----------------------------------------
 # rohf/sto-3g geom=connectivity pop=full
 ----------------------------------------
 1/38=1,57=2/1;
 2/12=2,17=6,18=5,40=1/2;
 3/6=3,11=2,16=1,25=1,30=1,116=101/1,2,3;
 4//1;
 5/5=2,38=5/2;
 6/7=3,28=1/1;
 99/5=1,9=1/99;
 ----------
 O2 triplet
 ----------
 Symbolic Z-matrix:
 Charge =  0 Multiplicity = 3
 O                     0.        0.        0. 
 O                     0.        0.        1.19484 
 
                          Input orientation:                          
 ---------------------------------------------------------------------
 Center     Atomic      Atomic             Coordinates (Angstroms)
 Number     Number       Type             X           Y           Z
 ---------------------------------------------------------------------
      1          8           0        0.000000    0.000000    0.000000
      2          8           0        0.000000    0.000000    1.194842
 ---------------------------------------------------------------------
 Stoichiometry    O2(3)
 Framework group  D*H[C*(O.O)]
 Deg. of freedom     1
 Full point group                 D*H     NOp   8
 Largest Abelian subgroup         D2H     NOp   8
 Largest concise Abelian subgroup C2      NOp   2
                         Standard orientation:                         
 ---------------------------------------------------------------------
 Center     Atomic      Atomic             Coordinates (Angstroms)
 Number     Number       Type             X           Y           Z
 ---------------------------------------------------------------------
      1          8           0        0.000000    0.000000    0.597421
      2          8           0        0.000000    0.000000   -0.597421
 ---------------------------------------------------------------------
 Rotational constants (GHZ):      0.0000000     44.2633525     44.2633525
 Standard basis: STO-3G (5D, 7F)
 There are     3 symmetry adapted cartesian basis functions of AG  symmetry.
 There are     0 symmetry adapted cartesian basis functions of B1G symmetry.
 There are     1 symmetry adapted cartesian basis functions of B2G symmetry.
 There are     1 symmetry adapted cartesian basis functions of B3G symmetry.
 There are     0 symmetry adapted cartesian basis functions of AU  symmetry.
 There are     3 symmetry adapted cartesian basis functions of B1U symmetry.
 There are     1 symmetry adapted cartesian basis functions of B2U symmetry.
 There are     1 symmetry adapted cartesian basis functions of B3U symmetry.
 There are     3 symmetry adapted basis functions of AG  symmetry.
 There are     0 symmetry adapted basis functions of B1G symmetry.
 There are     1 symmetry adapted basis functions of B2G symmetry.
 There are     1 symmetry adapted basis functions of B3G symmetry.
 There are     0 symmetry adapted basis functions of AU  symmetry.
 There are     3 symmetry adapted basis functions of B1U symmetry.
 There are     1 symmetry adapted basis functions of B2U symmetry.
 There are     1 symmetry adapted basis functions of B3U symmetry.
    10 basis functions,    30 primitive gaussians,    10 cartesian basis functions
     9 alpha electrons        7 beta electrons
       nuclear repulsion energy        28.3446190791 Hartrees.
 NAtoms=    2 NActive=    2 NUniq=    1 SFac= 4.00D+00 NAtFMM=   60 NAOKFM=F Big=F
 Integral buffers will be    131072 words long.
 Raffenetti 2 integral format.
 Two-electron integral symmetry is turned on.
 One-electron integrals computed using PRISM.
 NBasis=    10 RedAO= T EigKep=  4.93D-01  NBF=     3     0     1     1     0     3     1     1
 NBsUse=    10 1.00D-06 EigRej= -1.00D+00 NBFU=     3     0     1     1     0     3     1     1
 ExpMin= 3.80D-01 ExpMax= 1.31D+02 ExpMxC= 1.31D+02 IAcc=1 IRadAn=         1 AccDes= 0.00D+00
 Harris functional with IExCor=  205 and IRadAn=       1 diagonalized for initial guess.
 HarFok:  IExCor=  205 AccDes= 0.00D+00 IRadAn=         1 IDoV= 1 UseB2=F ITyADJ=14
 ICtDFT=  3500011 ScaDFX=  1.000000  1.000000  1.000000  1.000000
 FoFCou: FMM=F IPFlag=           0 FMFlag=      100000 FMFlg1=           0
         NFxFlg=           0 DoJE=T BraDBF=F KetDBF=T FulRan=T
         wScrn=  0.000000 ICntrl=     500 IOpCl=  0 I1Cent=   200000004 NGrid=           0
         NMat0=    1 NMatS0=      1 NMatT0=    0 NMatD0=    1 NMtDS0=    0 NMtDT0=    0
 Petite list used in FoFCou.
 Initial guess orbital symmetries:
       Occupied  (SGU) (SGG) (SGG) (SGU) (SGG) (PIU) (PIU) (PIG)
                 (PIG)
       Virtual   (SGU)
 The electronic state of the initial guess is 3-SGG.
 Keep R1 and R2 ints in memory in symmetry-blocked form, NReq=824598.
 Requested convergence on RMS density matrix=1.00D-08 within 128 cycles.
 Requested convergence on MAX density matrix=1.00D-06.
 Requested convergence on             energy=1.00D-06.
 No special actions if energy rises.
 SCF Done:  E(ROHF) =  -147.631134173     A.U. after    5 cycles
            NFock=  5  Conv=0.14D-10     -V/T= 2.0111
 <Sx>= 0.0000 <Sy>= 0.0000 <Sz>= 1.0000 <S**2>= 2.0000 S= 1.0000
 <L.S>= 0.000000000000E+00
 Annihilation of the first spin contaminant:
 S**2 before annihilation     2.0000,   after     2.0000

 **********************************************************************

            Population analysis using the SCF density.

 **********************************************************************

 Orbital symmetries:
       Occupied  (SGU) (SGG) (SGG) (SGU) (SGG) (PIU) (PIU) (PIG)
                 (PIG)
       Virtual   (SGU)
 The electronic state is 3-SGG.
 Alpha  occ. eigenvalues --  -20.42331 -20.42288  -1.54769  -0.95736  -0.57480
 Alpha  occ. eigenvalues --   -0.54392  -0.54392  -0.04448  -0.04448
 Alpha virt. eigenvalues --    0.74237
     Molecular Orbital Coefficients:
                           1         2         3         4         5
                       (SGU)--O  (SGG)--O  (SGG)--O  (SGU)--O  (SGG)--O
     Eigenvalues --   -20.42331 -20.42288  -1.54769  -0.95736  -0.57480
   1 1   O  1S          0.70301   0.70371  -0.16831  -0.18459  -0.06777
   2        2S          0.01965   0.01250   0.56680   0.77647   0.34029
   3        2PX         0.00000   0.00000   0.00000   0.00000   0.00000
   4        2PY         0.00000   0.00000   0.00000   0.00000   0.00000
   5        2PZ        -0.00587  -0.00020  -0.18060   0.16168   0.61246
   6 2   O  1S         -0.70301   0.70371  -0.16831   0.18459  -0.06777
   7        2S         -0.01965   0.01250   0.56680  -0.77647   0.34029
   8        2PX         0.00000   0.00000   0.00000   0.00000   0.00000
   9        2PY         0.00000   0.00000   0.00000   0.00000   0.00000
  10        2PZ        -0.00587   0.00020   0.18060   0.16168  -0.61246
                           6         7         8         9        10
                       (PIU)--O  (PIU)--O  (PIG)--O  (PIG)--O  (SGU)--V
     Eigenvalues --    -0.54392  -0.54392  -0.04448  -0.04448   0.74237
   1 1   O  1S          0.00000   0.00000   0.00000   0.00000   0.09630
   2        2S          0.00000   0.00000   0.00000   0.00000  -0.60177
   3        2PX         0.00000   0.65729   0.00000   0.77030   0.00000
   4        2PY         0.65729   0.00000   0.77030   0.00000   0.00000
   5        2PZ         0.00000   0.00000   0.00000   0.00000   0.95334
   6 2   O  1S          0.00000   0.00000   0.00000   0.00000  -0.09630
   7        2S          0.00000   0.00000   0.00000   0.00000   0.60177
   8        2PX         0.00000   0.65729   0.00000  -0.77030   0.00000
   9        2PY         0.65729   0.00000  -0.77030   0.00000   0.00000
  10        2PZ         0.00000   0.00000   0.00000   0.00000   0.95334
     Alpha Density Matrix:
                           1         2         3         4         5
   1 1   O  1S          1.05643
   2        2S         -0.23918   1.04051
   3        2PX         0.00000   0.00000   1.02538
   4        2PY         0.00000   0.00000   0.00000   1.02538
   5        2PZ        -0.04522   0.23147   0.00000   0.00000   0.43389
   6 2   O  1S         -0.00018   0.01985   0.00000   0.00000   0.02272
   7        2S          0.01985  -0.16607   0.00000   0.00000  -0.01937
   8        2PX         0.00000   0.00000  -0.16133   0.00000   0.00000
   9        2PY         0.00000   0.00000   0.00000  -0.16133   0.00000
  10        2PZ        -0.02272   0.01937   0.00000   0.00000  -0.38155
                           6         7         8         9        10
   6 2   O  1S          1.05643
   7        2S         -0.23918   1.04051
   8        2PX         0.00000   0.00000   1.02538
   9        2PY         0.00000   0.00000   0.00000   1.02538
  10        2PZ         0.04522  -0.23147   0.00000   0.00000   0.43389
     Beta Density Matrix:
                           1         2         3         4         5
   1 1   O  1S          1.05643
   2        2S         -0.23918   1.04051
   3        2PX         0.00000   0.00000   0.43203
   4        2PY         0.00000   0.00000   0.00000   0.43203
   5        2PZ        -0.04522   0.23147   0.00000   0.00000   0.43389
   6 2   O  1S         -0.00018   0.01985   0.00000   0.00000   0.02272
   7        2S          0.01985  -0.16607   0.00000   0.00000  -0.01937
   8        2PX         0.00000   0.00000   0.43203   0.00000   0.00000
   9        2PY         0.00000   0.00000   0.00000   0.43203   0.00000
  10        2PZ        -0.02272   0.01937   0.00000   0.00000  -0.38155
                           6         7         8         9        10
   6 2   O  1S          1.05643
   7        2S         -0.23918   1.04051
   8        2PX         0.00000   0.00000   0.43203
   9        2PY         0.00000   0.00000   0.00000   0.43203
  10        2PZ         0.04522  -0.23147   0.00000   0.00000   0.43389
    Full Mulliken population analysis:
                           1         2         3         4         5
   1 1   O  1S          2.11285
   2        2S         -0.11323   2.08103
   3        2PX         0.00000   0.00000   1.45741
   4        2PY         0.00000   0.00000   0.00000   1.45741
   5        2PZ         0.00000   0.00000   0.00000   0.00000   0.86779
   6 2   O  1S          0.00000   0.00095   0.00000   0.00000  -0.00183
   7        2S          0.00095  -0.09582   0.00000   0.00000   0.01271
   8        2PX         0.00000   0.00000   0.04259   0.00000   0.00000
   9        2PY         0.00000   0.00000   0.00000   0.04259   0.00000
  10        2PZ        -0.00183   0.01271   0.00000   0.00000   0.23696
                           6         7         8         9        10
   6 2   O  1S          2.11285
   7        2S         -0.11323   2.08103
   8        2PX         0.00000   0.00000   1.45741
   9        2PY         0.00000   0.00000   0.00000   1.45741
  10        2PZ         0.00000   0.00000   0.00000   0.00000   0.86779
     Gross orbital populations:
                         Total     Alpha     Beta      Spin
   1 1   O  1S          1.99874   0.99937   0.99937   0.00000
   2        2S          1.88563   0.94282   0.94282   0.00000
   3        2PX         1.50000   1.00000   0.50000   0.50000
   4        2PY         1.50000   1.00000   0.50000   0.50000
   5        2PZ         1.11562   0.55781   0.55781   0.00000
   6 2   O  1S          1.99874   0.99937   0.99937   0.00000
   7        2S          1.88563   0.94282   0.94282   0.00000
   8        2PX         1.50000   1.00000   0.50000   0.50000
   9        2PY         1.50000   1.00000   0.50000   0.50000
  10        2PZ         1.11562   0.55781   0.55781   0.00000
          Condensed to atoms (all electrons):
               1          2
     1  O    7.750022   0.249978
     2  O    0.249978   7.750022
          Atomic-Atomic Spin Densities.
               1          2
     1  O    1.186711  -0.186711
     2  O   -0.186711   1.186711
 Mulliken charges and spin densities:
               1          2
     1  O    0.000000   1.000000
     2  O    0.000000   1.000000
 Sum of Mulliken charges =   0.00000   2.00000
 Mulliken charges and spin densities with hydrogens summed into heavy atoms:
               1          2
     1  O    0.000000   1.000000
     2  O    0.000000   1.000000
 Electronic spatial extent (au):  <R**2>=             40.2281
 Charge=              0.0000 electrons
 Dipole moment (field-independent basis, Debye):
    X=              0.0000    Y=              0.0000    Z=              0.0000  Tot=              0.0000
 Quadrupole moment (field-independent basis, Debye-Ang):
   XX=             -8.4675   YY=             -8.4675   ZZ=             -9.7441
   XY=              0.0000   XZ=              0.0000   YZ=              0.0000
 Traceless Quadrupole moment (field-independent basis, Debye-Ang):
   XX=              0.4256   YY=              0.4256   ZZ=             -0.8511
   XY=              0.0000   XZ=              0.0000   YZ=              0.0000
 Octapole moment (field-independent basis, Debye-Ang**2):
  XXX=              0.0000  YYY=              0.0000  ZZZ=              0.0000  XYY=              0.0000
  XXY=              0.0000  XXZ=              0.0000  XZZ=              0.0000  YZZ=              0.0000
  YYZ=              0.0000  XYZ=              0.0000
 Hexadecapole moment (field-independent basis, Debye-Ang**3):
 XXXX=             -3.9575 YYYY=             -3.9575 ZZZZ=            -23.0516 XXXY=              0.0000
 XXXZ=              0.0000 YYYX=              0.0000 YYYZ=              0.0000 ZZZX=              0.0000
 ZZZY=              0.0000 XXYY=             -1.3192 XXZZ=             -4.4861 YYZZ=             -4.4861
 XXYZ=              0.0000 YYXZ=              0.0000 ZZXY=              0.0000
 N-N= 2.834461907914D+01 E-N=-4.067900294935D+02  KE= 1.460100486116D+02
 Symmetry AG   KE= 6.747476409256D+01
 Symmetry B1G  KE= 0.000000000000D+00
 Symmetry B2G  KE= 2.921713398082D+00
 Symmetry B3G  KE= 2.921713398082D+00
 Symmetry AU   KE= 0.000000000000D+00
 Symmetry B1U  KE= 6.372146776109D+01
 Symmetry B2U  KE= 4.485194980871D+00
 Symmetry B3U  KE= 4.485194980871D+00
 Orbital energies and kinetic energies (alpha):
                                 1                 2
   1         (SGU)--O        -20.423307         28.660842
   2         (SGG)--O        -20.422885         28.718770
   3         (SGG)--O         -1.547685          2.508083
   4         (SGU)--O         -0.957360          3.199892
   5         (SGG)--O         -0.574800          2.510529
   6         (PIU)--O         -0.543920          2.242597
   7         (PIU)--O         -0.543920          2.242597
   8         (PIG)--O         -0.044482          2.921713
   9         (PIG)--O         -0.044482          2.921713
  10         (SGU)--V          0.742367          4.691916
 Total kinetic energy from orbitals= 1.518534754077D+02
                          Isotropic Fermi Contact Couplings
        Atom                 a.u.       MegaHertz       Gauss      10(-4) cm-1
     1  O(17)              0.00000       0.00000       0.00000       0.00000
     2  O(17)              0.00000       0.00000       0.00000       0.00000
 --------------------------------------------------------
       Center         ----  Spin Dipole Couplings  ----
                      3XX-RR        3YY-RR        3ZZ-RR
 --------------------------------------------------------
     1   Atom        0.761723      0.761723     -1.523446
     2   Atom        0.761723      0.761723     -1.523446
 --------------------------------------------------------
                        XY            XZ            YZ
 --------------------------------------------------------
     1   Atom        0.000000      0.000000      0.000000
     2   Atom        0.000000      0.000000      0.000000
 --------------------------------------------------------


 ---------------------------------------------------------------------------------
              Anisotropic Spin Dipole Couplings in Principal Axis System
 ---------------------------------------------------------------------------------

       Atom             a.u.   MegaHertz   Gauss  10(-4) cm-1        Axes

              Baa    -1.5234   110.236    39.335    36.771  0.0000  0.0000  1.0000
     1 O(17)  Bbb     0.7617   -55.118   -19.667   -18.385  1.0000  0.0000  0.0000
              Bcc     0.7617   -55.118   -19.667   -18.385  0.0000  1.0000  0.0000
 
              Baa    -1.5234   110.236    39.335    36.771  0.0000  0.0000  1.0000
     2 O(17)  Bbb     0.7617   -55.118   -19.667   -18.385  1.0000  0.0000  0.0000
              Bcc     0.7617   -55.118   -19.667   -18.385  0.0000  1.0000  0.0000
 

 ---------------------------------------------------------------------------------

 1|1|UNPC-DESKTOP-8C6UQQE|SP|ROHF|STO-3G|O2(3)|WANG|20-Nov-2024|0||# ro
 hf/sto-3g geom=connectivity pop=full||O2 triplet||0,3|O,0,0.,0.,0.|O,0
 ,0.,0.,1.194842||Version=EM64W-G09RevE.01|State=3-SGG|HF=-147.6311342|
 RMSD=1.356e-011|Dipole=0.,0.,0.|Quadrupole=0.3163865,0.3163865,-0.6327
 731,0.,0.,0.|PG=D*H [C*(O1.O1)]||@


          EVOLUTION
 IN THE BEGINNING GOD MADE MAN.
 HE WORKED THE DIRT WITH HIS HANDS.
 THEN GOD DECIDED TO GIVE MAN SCIENCE,
 MAN SHOULD BE USEFUL (LIKE AN APPLIANCE.)
 BUT SOON MAN'S KNOWLEDGE GREW TOO GREAT,
 TO THE HEADING SCIENCE HE COULDN'T RELATE
 SO GOD SAID "LETS HAVE DIFFERENT FIELDS,
 WE'LL DIVIDE THEM UP, SEE WHAT IT YIELDS."
 ENTER PHYSICS, CHEMISTRY, BIO
 THEY SPRANG UP AROUND THE NILE.
 BUT CHEMISTRY SURPASSED THE REST
 FAR AND AWAY IT WAS THE BEST.
 EXPERIMENT WAS GOD'S DECREE
 EXPERIMENT DID CHEMISTS WITH LOTS OF GLEE
 BUT SOON THEIR TESTS BEGAN TO BOG,
 THEY FOUND THEMSELVES DEEP IN A FOG.
 "GIVE US SOME HELP" THEY CRIED TO GOD.
 GOD LOOKED AROUND, THEN GAVE THE NOD.
 ENTER EINSTEIN, HEISENBERG, BOHR,
 REACTION PATHS WERE CLEAR ONCE MORE.
 WITH THEORISTS GOD SEND DIRECTION
 AND THEN HE STOPPED, HE'D MADE PERFECTION.
          -- THOMAS A. HOLME, 1981
 Job cpu time:       0 days  0 hours  0 minutes  2.0 seconds.
 File lengths (MBytes):  RWF=      5 Int=      0 D2E=      0 Chk=      1 Scr=      1
 Normal termination of Gaussian 09 at Wed Nov 20 23:37:16 2024.
